 # Fcc Al oriented X=[100] Y=[010] Z=[001].
  
           4  atoms
           1  atom types
 
      0.000000000000       4.046000000000  xlo xhi
      0.000000000000       4.046000000000  ylo yhi
      0.000000000000       4.046000000000  zlo zhi
 
Masses
 
            1   26.98153860             # Al
 
Atoms # atomic
 
         1    1        0.000000000000       0.000000000000       0.000000000000
         2    1        2.023000000000       2.023000000000       0.000000000000
         3    1        0.000000000000       2.023000000000       2.023000000000
         4    1        2.023000000000       0.000000000000       2.023000000000
